
Host: SebastifficeMac.fritz.box

Timers On : Thu Apr 11 18:21:03 2024
Timers Off: Thu Apr 11 18:24:04 2024

Wall Time:      180.67 seconds

                                                       Time (seconds)
Module                                       User      System        Wall        Calls

--------------------------------------------------------------------------------------

**************************************************************************************
